/*--------------------------------*- C++ -*----------------------------------*\
| =========                 |                                                 |
| \\      /  F ield         | OpenFOAM: The Open Source CFD Toolbox           |
|  \\    /   O peration     | Version:  2.3.0                                 |
|   \\  /    A nd           | Web:      www.OpenFOAM.org                      |
|    \\/     M anipulation  |                                                 |
\*---------------------------------------------------------------------------*/
FoamFile
{
    version     2.0;
    format      ascii;
    class       volScalarField;
    location    "0";
    object      k;
}
// * * * * * * * * * * * * * * * * * * * * * * * * * * * * * * * * * * * * * //

dimensions      [0 2 -2 0 0 0 0];

internalField   uniform 0.01;

boundaryField
{
	#include "empty-front-back"
	#include "cyclic-ami"
    
    inlet
    {
        type        turbulentIntensityKineticEnergyInlet;
        intensity   0.01;           
        value       $internalField;     
    }

    outlet
    {
        type            inletOutlet;
        inletValue      $internalField;
        value           $internalField;
    }

    upperWall
    {
        type            zeroGradient;
    }
    
    lowerWall
    {
        type            kqRWallFunction;
        //type            kLowReWallFunction;
        value           $internalField;
    }

    blades
    {
        type            kqRWallFunction;
        //type            kLowReWallFunction;
        value           $internalField;
    }
}


// ************************************************************************* //
