/*--------------------------------*- C++ -*----------------------------------*\
| =========                 |                                                 |
| \\      /  F ield         | OpenFOAM: The Open Source CFD Toolbox           |
|  \\    /   O peration     | Version:  2.3.0                                 |
|   \\  /    A nd           | Web:      www.OpenFOAM.org                      |
|    \\/     M anipulation  |                                                 |
\*---------------------------------------------------------------------------*/
FoamFile
{
    version     2.0;
    format      ascii;
    class       volScalarField;
    location    "0";
    object      k;
}
// * * * * * * * * * * * * * * * * * * * * * * * * * * * * * * * * * * * * * //

dimensions      [0 2 -2 0 0 0 0];

internalField   uniform 0.00375; //0.375;

boundaryField
{
	#include "empty-front-back"
	#include "cyclic-ami"
    
    inlet
    {
        type        turbulentIntensityKineticEnergyInlet;
        intensity   0.05;           
        value       uniform 0.00375;     
    }

    outlet
    {
    	type			zeroGradient;
        //type            inletOutlet;
        //inletValue      $internalField;
        //value           $internalField;
    }

    upperWall
    {
    	type 		fixedValue;
        value       uniform 0.00375;   
        //type            freestream;
    	//freestreamValue 	uniform 0.00375;
    }
    
    lowerWall
    {
        type            kqRWallFunction;
        value           uniform 0.00375;
        //value           $internalField;
    }

    blades
    {
        type            kqRWallFunction;
        value           uniform 0.00375;
        //type            kLowReWallFunction;
        //value           $internalField;
    }
}


// ************************************************************************* //
