/*--------------------------------*- C++ -*----------------------------------*\
| =========                 |                                                 |
| \\      /  F ield         | OpenFOAM: The Open Source CFD Toolbox           |
|  \\    /   O peration     | Version:  2.3.0                                 |
|   \\  /    A nd           | Web:      www.OpenFOAM.org                      |
|    \\/     M anipulation  |                                                 |
\*---------------------------------------------------------------------------*/
FoamFile
{
    version     2.0;
    format      ascii;
    class       volScalarField;
    location    "0";
    object      epsilon;
}
// * * * * * * * * * * * * * * * * * * * * * * * * * * * * * * * * * * * * * //

dimensions      [0 2 -3 0 0 0 0];

internalField   uniform 0.006;

boundaryField
{
	#include "empty-front-back"
	#include "cyclic-ami"

    inlet
    {
        type            turbulentMixingLengthDissipationRateInlet;
        mixingLength    0.03;
        value           $internalField;
    }

    outlet
    {
        type            inletOutlet;
        inletValue      $internalField;
        value           $internalField;
    }

    upperWall
    {
        type            zeroGradient;
    }
    
    lowerWall
    {
        type            epsilonWallFunction;
        value           $internalField;
    }

    blades
    {
        type            epsilonWallFunction;
        value           $internalField;
    }
}


// ************************************************************************* //
